REMARK SMILES C#Cc1cccc(Nc2ncnc3cc(OCCOC)c(OCCOC)cc23)c1
REMARK SMILES IDX 15 1 14 2 13 3 12 4 11 5 10 6 9 7 28 8 27 9 21 10 16 11
REMARK SMILES IDX 17 12 18 13 19 14 20 15 22 16 23 17 24 18 25 19 26 20 8 21
REMARK SMILES IDX 7 23 6 24 29 25 5 26 3 27 4 28 2 29 1 30
REMARK H PARENT 8 22
ROOT
ATOM      1  C   UNL     1      -1.982  -0.975  -0.344  1.00  0.00     0.163 A 
ATOM      2  C   UNL     1      -1.186  -2.119  -0.455  1.00  0.00     0.079 A 
ATOM      3  C   UNL     1       0.178  -2.097  -0.196  1.00  0.00     0.080 A 
ATOM      4  N   UNL     1       0.867  -3.232  -0.338  1.00  0.00    -0.236 NA
ATOM      5  C   UNL     1       2.180  -3.175  -0.090  1.00  0.00     0.224 A 
ATOM      6  N   UNL     1       2.861  -2.096   0.299  1.00  0.00    -0.219 NA
ATOM      7  C   UNL     1       2.161  -0.958   0.455  1.00  0.00     0.141 A 
ATOM      8  C   UNL     1       0.775  -0.895   0.202  1.00  0.00     0.047 A 
ATOM      9  C   UNL     1      -0.023   0.273   0.313  1.00  0.00     0.064 A 
ATOM     10  C   UNL     1      -1.393   0.237   0.048  1.00  0.00     0.162 A 
ENDROOT
BRANCH   1  11
ATOM     11  O   UNL     1      -3.334  -0.935  -0.577  1.00  0.00    -0.487 OA
BRANCH  11  12
ATOM     12  C   UNL     1      -3.970  -2.056  -1.188  1.00  0.00     0.258 C 
BRANCH  12  13
ATOM     13  C   UNL     1      -4.516  -3.020  -0.133  1.00  0.00     0.201 C 
BRANCH  13  14
ATOM     14  O   UNL     1      -5.089  -4.190  -0.717  1.00  0.00    -0.381 OA
ATOM     15  C   UNL     1      -6.408  -3.981  -1.205  1.00  0.00     0.195 C 
ENDBRANCH  13  14
ENDBRANCH  12  13
ENDBRANCH  11  12
ENDBRANCH   1  11
BRANCH  10  16
ATOM     16  O   UNL     1      -2.234   1.317   0.136  1.00  0.00    -0.487 OA
BRANCH  16  17
ATOM     17  C   UNL     1      -1.678   2.569   0.529  1.00  0.00     0.258 C 
BRANCH  17  18
ATOM     18  C   UNL     1      -2.796   3.607   0.564  1.00  0.00     0.201 C 
BRANCH  18  19
ATOM     19  O   UNL     1      -2.259   4.864   0.975  1.00  0.00    -0.381 OA
ATOM     20  C   UNL     1      -3.263   5.870   1.013  1.00  0.00     0.195 C 
ENDBRANCH  18  19
ENDBRANCH  17  18
ENDBRANCH  16  17
ENDBRANCH  10  16
BRANCH   7  21
ATOM     21  N   UNL     1       2.828   0.212   0.911  1.00  0.00    -0.340 N 
ATOM     22  H   UNL     1       2.359   0.549   1.745  1.00  0.00     0.168 HD
BRANCH  21  23
ATOM     23  C   UNL     1       4.219   0.464   0.968  1.00  0.00     0.041 A 
ATOM     24  C   UNL     1       4.698   1.425   1.874  1.00  0.00     0.026 A 
ATOM     25  C   UNL     1       5.130  -0.107   0.071  1.00  0.00     0.043 A 
ATOM     26  C   UNL     1       6.054   1.758   1.924  1.00  0.00     0.003 A 
ATOM     27  C   UNL     1       6.490   0.223   0.116  1.00  0.00     0.026 A 
ATOM     28  C   UNL     1       6.952   1.151   1.049  1.00  0.00     0.017 A 
ATOM     29  C   UNL     1       7.405  -0.385  -0.801  1.00  0.00    -0.070 C 
ATOM     30  C   UNL     1       8.172  -0.895  -1.571  1.00  0.00     0.010 C 
ENDBRANCH  21  23
ENDBRANCH   7  21
TORSDOF 10
