REMARK SMILES Cn1ncnc1[C@H]1c2n[nH]c(=O)c3cc(F)cc(c23)N[C@@H]1c1ccc(F)cc1
REMARK SMILES IDX 7 1 21 2 20 3 18 4 17 5 15 6 16 7 14 8 13 9 11 10 12 11
REMARK SMILES IDX 10 12 9 13 8 14 19 15 6 18 2 19 3 20 4 21 5 22 1 23 22 24
REMARK SMILES IDX 23 25 28 26 24 27 27 28 25 29 26 30
REMARK H PARENT 20 16 10 17
ROOT
ATOM      1  C   UNL     1      -0.314  -0.763   0.335  1.00  0.00     0.136 C 
ATOM      2  C   UNL     1      -0.409   0.762   0.117  1.00  0.00     0.126 C 
ATOM      3  N   UNL     1       0.552   1.483   0.967  1.00  0.00    -0.376 N 
ATOM      4  C   UNL     1       1.875   1.039   0.893  1.00  0.00     0.048 A 
ATOM      5  C   UNL     1       2.915   1.883   1.296  1.00  0.00     0.065 A 
ATOM      6  C   UNL     1       4.235   1.434   1.283  1.00  0.00     0.126 A 
ATOM      7  F   UNL     1       5.215   2.268   1.651  1.00  0.00    -0.207 F 
ATOM      8  C   UNL     1       4.551   0.139   0.896  1.00  0.00     0.054 A 
ATOM      9  C   UNL     1       3.514  -0.722   0.537  1.00  0.00     0.055 A 
ATOM     10  C   UNL     1       3.789  -2.108   0.137  1.00  0.00     0.272 C 
ATOM     11  O   UNL     1       4.934  -2.540   0.089  1.00  0.00    -0.267 OA
ATOM     12  N   UNL     1       2.691  -2.869  -0.186  1.00  0.00    -0.243 N 
ATOM     13  N   UNL     1       1.390  -2.471  -0.127  1.00  0.00    -0.176 NA
ATOM     14  C   UNL     1       1.131  -1.243   0.216  1.00  0.00     0.084 C 
ATOM     15  C   UNL     1       2.195  -0.281   0.555  1.00  0.00     0.035 A 
ATOM     16  H   UNL     1       0.453   2.496   0.902  1.00  0.00     0.161 HD
ATOM     17  H   UNL     1       2.856  -3.842  -0.431  1.00  0.00     0.194 HD
ENDROOT
BRANCH   1  18
ATOM     18  C   UNL     1      -1.240  -1.515  -0.585  1.00  0.00     0.138 A 
ATOM     19  N   UNL     1      -1.065  -1.763  -1.926  1.00  0.00    -0.252 N 
ATOM     20  N   UNL     1      -2.139  -2.389  -2.445  1.00  0.00    -0.160 NA
ATOM     21  C   UNL     1      -2.915  -2.535  -1.372  1.00  0.00     0.246 A 
ATOM     22  N   UNL     1      -2.411  -2.010  -0.222  1.00  0.00    -0.219 NA
ATOM     23  C   UNL     1       0.035  -1.452  -2.801  1.00  0.00     0.176 C 
ENDBRANCH   1  18
BRANCH   2  24
ATOM     24  C   UNL     1      -1.793   1.334   0.405  1.00  0.00    -0.024 A 
ATOM     25  C   UNL     1      -2.580   1.841  -0.644  1.00  0.00     0.009 A 
ATOM     26  C   UNL     1      -2.311   1.359   1.713  1.00  0.00     0.009 A 
ATOM     27  C   UNL     1      -3.852   2.359  -0.388  1.00  0.00     0.039 A 
ATOM     28  C   UNL     1      -3.581   1.878   1.965  1.00  0.00     0.039 A 
ATOM     29  C   UNL     1      -4.340   2.373   0.912  1.00  0.00     0.123 A 
ATOM     30  F   UNL     1      -5.558   2.873   1.154  1.00  0.00    -0.207 F 
ENDBRANCH   2  24
TORSDOF 2
