REMARK SMILES CC(C)(C)[C@H](NC(=O)C(F)(F)F)C(=O)N1C[C@H]2[C@@H]([C@H]1C(=O)N[C@H](C=N)C[C@@H]1CCNC1=O)C2(C)C
REMARK SMILES IDX 15 1 16 2 17 3 18 4 19 5 33 6 34 7 35 8 13 9 14 10 5 11 2 12
REMARK SMILES IDX 1 13 3 14 4 15 6 16 7 17 8 18 9 20 10 21 11 22 12 23 20 24
REMARK SMILES IDX 21 25 22 26 23 28 26 29 27 30 28 31 31 32 29 33 30 34 32 35
REMARK SMILES IDX 24 37 25 38
REMARK H PARENT 6 19 22 27 30 36 25 39
ROOT
ATOM      1  N   UNL     1      -0.532   0.793  -0.573  1.00  0.00    -0.328 N 
ATOM      2  C   UNL     1      -0.996   1.118   0.772  1.00  0.00     0.125 C 
ATOM      3  C   UNL     1      -0.269   2.370   1.138  1.00  0.00     0.021 C 
ATOM      4  C   UNL     1       0.649   2.740   0.016  1.00  0.00     0.033 C 
ATOM      5  C   UNL     1       0.529   1.692  -1.064  1.00  0.00     0.178 C 
ATOM      6  C   UNL     1      -0.468   3.697   0.419  1.00  0.00    -0.025 C 
ATOM      7  C   UNL     1      -0.068   4.946   1.169  1.00  0.00     0.012 C 
ATOM      8  C   UNL     1      -1.660   3.905  -0.479  1.00  0.00     0.012 C 
ENDROOT
BRANCH   1   9
ATOM      9  C   UNL     1      -1.143  -0.088  -1.448  1.00  0.00     0.246 C 
ATOM     10  O   UNL     1      -0.886  -0.055  -2.654  1.00  0.00    -0.272 OA
BRANCH   9  11
ATOM     11  C   UNL     1      -2.214  -1.050  -0.872  1.00  0.00     0.177 C 
BRANCH  11  12
ATOM     12  C   UNL     1      -2.189  -2.490  -1.483  1.00  0.00    -0.009 C 
ATOM     13  C   UNL     1      -3.084  -3.414  -0.627  1.00  0.00     0.013 C 
ATOM     14  C   UNL     1      -0.758  -3.060  -1.435  1.00  0.00     0.013 C 
ATOM     15  C   UNL     1      -2.702  -2.549  -2.934  1.00  0.00     0.013 C 
ENDBRANCH  11  12
BRANCH  11  16
ATOM     16  N   UNL     1      -3.509  -0.389  -1.067  1.00  0.00    -0.336 N 
ATOM     17  C   UNL     1      -4.408  -0.165  -0.032  1.00  0.00     0.326 C 
ATOM     18  O   UNL     1      -4.151  -0.517   1.122  1.00  0.00    -0.265 OA
ATOM     19  H   UNL     1      -3.738  -0.065  -2.005  1.00  0.00     0.164 HD
BRANCH  17  20
ATOM     20  C   UNL     1      -5.694   0.586  -0.440  1.00  0.00     0.471 C 
ATOM     21  F   UNL     1      -5.613   1.917  -0.157  1.00  0.00    -0.162 F 
ATOM     22  F   UNL     1      -5.925   0.498  -1.783  1.00  0.00    -0.162 F 
ATOM     23  F   UNL     1      -6.810   0.117   0.177  1.00  0.00    -0.162 F 
ENDBRANCH  17  20
ENDBRANCH  11  16
ENDBRANCH   9  11
ENDBRANCH   1   9
BRANCH   5  24
ATOM     24  C   UNL     1       1.886   0.956  -1.265  1.00  0.00     0.243 C 
ATOM     25  O   UNL     1       2.861   1.496  -1.790  1.00  0.00    -0.273 OA
ATOM     26  N   UNL     1       1.966  -0.294  -0.690  1.00  0.00    -0.347 N 
ATOM     27  H   UNL     1       1.205  -0.557  -0.064  1.00  0.00     0.164 HD
BRANCH  26  28
ATOM     28  C   UNL     1       3.200  -1.046  -0.620  1.00  0.00     0.123 C 
BRANCH  28  29
ATOM     29  C   UNL     1       4.151  -0.618   0.515  1.00  0.00     0.044 C 
BRANCH  29  30
ATOM     30  C   UNL     1       3.516   0.132   1.696  1.00  0.00     0.082 C 
ATOM     31  C   UNL     1       4.532   0.417   2.816  1.00  0.00     0.035 C 
ATOM     32  C   UNL     1       2.472  -0.696   2.415  1.00  0.00     0.223 C 
ATOM     33  C   UNL     1       4.355  -0.733   3.789  1.00  0.00     0.116 C 
ATOM     34  N   UNL     1       2.982  -1.095   3.627  1.00  0.00    -0.356 N 
ATOM     35  O   UNL     1       1.376  -1.009   1.978  1.00  0.00    -0.275 OA
ATOM     36  H   UNL     1       2.481  -1.762   4.202  1.00  0.00     0.163 HD
ENDBRANCH  29  30
ENDBRANCH  28  29
BRANCH  28  37
ATOM     37  C   UNL     1       2.821  -2.514  -0.492  1.00  0.00     0.098 C 
ATOM     38  N   UNL     1       2.794  -3.338  -1.491  1.00  0.00    -0.311 NA
ATOM     39  H   UNL     1       3.051  -2.860  -2.364  1.00  0.00     0.187 HD
ENDBRANCH  28  37
ENDBRANCH  26  28
ENDBRANCH   5  24
TORSDOF 10
