REMARK SMILES CC(C)(C)NC(=O)N[C@@H](Cc1ccccc1)C(O)C[C@H](O)[C@H](Cc1ccccc1)NC(=O)N1CCNC[C@H]1C(=O)O
REMARK SMILES IDX 20 1 19 2 17 3 9 4 8 5 5 6 6 7 7 8 2 11 1 12 3 13 4 14 10 15
REMARK SMILES IDX 11 16 12 17 16 18 13 19 15 20 14 21 18 22 21 24 22 26 23 27
REMARK SMILES IDX 24 28 25 29 29 30 26 31 28 32 27 33 30 34 31 35 32 36 33 38
REMARK SMILES IDX 34 39 38 40 35 41 37 42 36 43 39 45 40 46 41 47
REMARK H PARENT 5 9 8 10 18 23 21 25 30 37 36 44 41 48
ROOT
ATOM      1  C   UNL     1      -0.729  -0.207  -0.646  1.00  0.00     0.139 C 
ENDROOT
BRANCH   1   2
ATOM      2  C   UNL     1       0.641  -0.785  -1.041  1.00  0.00     0.068 C 
BRANCH   2   3
ATOM      3  C   UNL     1       1.837  -0.235  -0.252  1.00  0.00     0.139 C 
BRANCH   3   4
ATOM      4  C   UNL     1       3.209  -0.551  -0.924  1.00  0.00     0.117 C 
BRANCH   4   5
ATOM      5  N   UNL     1       4.250   0.309  -0.332  1.00  0.00    -0.332 N 
ATOM      6  N   UNL     1       5.307   2.263   0.059  1.00  0.00    -0.334 N 
ATOM      7  C   UNL     1       4.335   1.636  -0.678  1.00  0.00     0.315 C 
ATOM      8  O   UNL     1       3.629   2.160  -1.526  1.00  0.00    -0.249 OA
ATOM      9  H   UNL     1       6.056   1.636   0.317  1.00  0.00     0.165 HD
ATOM     10  H   UNL     1       4.470   0.118   0.636  1.00  0.00     0.165 HD
BRANCH   6  11
ATOM     11  C   UNL     1       5.693   3.672  -0.121  1.00  0.00     0.033 C 
ATOM     12  C   UNL     1       4.498   4.613   0.105  1.00  0.00     0.034 C 
ATOM     13  C   UNL     1       6.766   4.002   0.933  1.00  0.00     0.034 C 
ATOM     14  C   UNL     1       6.289   3.901  -1.518  1.00  0.00     0.034 C 
ENDBRANCH   6  11
ENDBRANCH   4   5
BRANCH   4  15
ATOM     15  C   UNL     1       3.681  -2.019  -0.800  1.00  0.00     0.063 C 
BRANCH  15  16
ATOM     16  C   UNL     1       2.940  -3.033  -1.638  1.00  0.00    -0.046 A 
ATOM     17  C   UNL     1       2.291  -4.115  -1.025  1.00  0.00     0.004 A 
ATOM     18  C   UNL     1       2.914  -2.933  -3.035  1.00  0.00     0.004 A 
ATOM     19  C   UNL     1       1.611  -5.062  -1.792  1.00  0.00     0.000 A 
ATOM     20  C   UNL     1       2.232  -3.880  -3.801  1.00  0.00     0.000 A 
ATOM     21  C   UNL     1       1.578  -4.942  -3.180  1.00  0.00     0.000 A 
ENDBRANCH  15  16
ENDBRANCH   4  15
ENDBRANCH   3   4
BRANCH   3  22
ATOM     22  O   UNL     1       1.831  -0.770   1.076  1.00  0.00    -0.391 OA
ATOM     23  H   UNL     1       1.803  -0.010   1.686  1.00  0.00     0.211 HD
ENDBRANCH   3  22
ENDBRANCH   2   3
ENDBRANCH   1   2
BRANCH   1  24
ATOM     24  O   UNL     1      -0.713   1.225  -0.821  1.00  0.00    -0.391 OA
ATOM     25  H   UNL     1      -0.381   1.409  -1.718  1.00  0.00     0.211 HD
ENDBRANCH   1  24
BRANCH   1  26
ATOM     26  C   UNL     1      -1.214  -0.508   0.798  1.00  0.00     0.117 C 
BRANCH  26  27
ATOM     27  C   UNL     1      -1.363  -2.021   1.102  1.00  0.00     0.063 C 
BRANCH  27  28
ATOM     28  C   UNL     1      -2.393  -2.757   0.270  1.00  0.00    -0.046 A 
ATOM     29  C   UNL     1      -2.018  -3.479  -0.871  1.00  0.00     0.004 A 
ATOM     30  C   UNL     1      -3.746  -2.735   0.637  1.00  0.00     0.004 A 
ATOM     31  C   UNL     1      -2.976  -4.147  -1.637  1.00  0.00     0.000 A 
ATOM     32  C   UNL     1      -4.704  -3.403  -0.128  1.00  0.00     0.000 A 
ATOM     33  C   UNL     1      -4.318  -4.107  -1.267  1.00  0.00     0.000 A 
ENDBRANCH  27  28
ENDBRANCH  26  27
BRANCH  26  34
ATOM     34  N   UNL     1      -2.455   0.253   1.034  1.00  0.00    -0.332 N 
ATOM     35  C   UNL     1      -2.972   0.405   2.293  1.00  0.00     0.318 C 
ATOM     36  O   UNL     1      -2.431  -0.055   3.294  1.00  0.00    -0.249 OA
ATOM     37  H   UNL     1      -2.439   1.130   0.525  1.00  0.00     0.165 HD
BRANCH  35  38
ATOM     38  N   UNL     1      -4.169   1.092   2.337  1.00  0.00    -0.308 N 
ATOM     39  C   UNL     1      -4.782   1.329   3.642  1.00  0.00     0.137 C 
ATOM     40  C   UNL     1      -5.019   1.339   1.151  1.00  0.00     0.210 C 
ATOM     41  C   UNL     1      -5.801   2.476   3.602  1.00  0.00     0.102 C 
ATOM     42  C   UNL     1      -6.520   1.417   1.510  1.00  0.00     0.118 C 
ATOM     43  N   UNL     1      -6.902   2.278   2.644  1.00  0.00    -0.312 NA
ATOM     44  H   UNL     1      -7.214   3.190   2.310  1.00  0.00     0.122 HD
BRANCH  40  45
ATOM     45  C   UNL     1      -4.593   2.611   0.419  1.00  0.00     0.327 C 
ATOM     46  O   UNL     1      -3.853   3.493   0.826  1.00  0.00    -0.250 OA
BRANCH  45  47
ATOM     47  O   UNL     1      -5.119   2.703  -0.822  1.00  0.00    -0.480 OA
ATOM     48  H   UNL     1      -4.741   3.538  -1.175  1.00  0.00     0.296 HD
ENDBRANCH  45  47
ENDBRANCH  40  45
ENDBRANCH  35  38
ENDBRANCH  26  34
ENDBRANCH   1  26
TORSDOF 16
