REMARK SMILES CCCS(=O)(=O)Nc1ccc(F)c(C(=O)c2c[nH]c3ncc(-c4ccc(Cl)cc4)cc23)c1F
REMARK SMILES IDX 8 1 9 2 10 3 11 4 12 5 13 6 32 7 33 8 7 9 4 11 5 12 6 13
REMARK SMILES IDX 3 14 2 15 1 16 14 17 15 18 16 19 17 20 31 21 18 22 30 23
REMARK SMILES IDX 19 24 22 25 20 26 21 27 23 29 24 30 29 31 25 32 28 33 26 34
REMARK SMILES IDX 27 35
REMARK H PARENT 7 10 18 28
ROOT
ATOM      1  C   UNL     1      -3.203   0.352  -0.632  1.00  0.00     0.085 A 
ATOM      2  C   UNL     1      -3.599   1.583  -1.162  1.00  0.00     0.033 A 
ATOM      3  C   UNL     1      -2.639   2.561  -1.437  1.00  0.00     0.042 A 
ATOM      4  C   UNL     1      -1.294   2.306  -1.174  1.00  0.00     0.137 A 
ATOM      5  F   UNL     1      -0.388   3.250  -1.462  1.00  0.00    -0.206 F 
ATOM      6  C   UNL     1      -0.903   1.084  -0.643  1.00  0.00     0.096 A 
ATOM      7  C   UNL     1      -1.852   0.110  -0.362  1.00  0.00     0.161 A 
ATOM      8  F   UNL     1      -1.486  -1.080   0.138  1.00  0.00    -0.204 F 
ENDROOT
BRANCH   1   9
ATOM      9  N   UNL     1      -4.184  -0.641  -0.303  1.00  0.00    -0.281 N 
ATOM     10  H   UNL     1      -3.790  -1.588  -0.241  1.00  0.00     0.180 HD
BRANCH   9  11
ATOM     11  S   UNL     1      -5.042  -0.382   1.149  1.00  0.00     0.232 S 
ATOM     12  O   UNL     1      -4.952  -1.637   1.862  1.00  0.00    -0.207 OA
ATOM     13  O   UNL     1      -4.630   0.871   1.738  1.00  0.00    -0.207 OA
BRANCH  11  14
ATOM     14  C   UNL     1      -6.702  -0.210   0.504  1.00  0.00     0.159 C 
BRANCH  14  15
ATOM     15  C   UNL     1      -7.721   0.187   1.567  1.00  0.00     0.015 C 
ATOM     16  C   UNL     1      -8.035  -0.926   2.555  1.00  0.00     0.005 C 
ENDBRANCH  14  15
ENDBRANCH  11  14
ENDBRANCH   9  11
ENDBRANCH   1   9
BRANCH   6  17
ATOM     17  C   UNL     1       0.507   0.826  -0.365  1.00  0.00     0.201 C 
ATOM     18  O   UNL     1       0.944   1.147   0.736  1.00  0.00    -0.288 OA
BRANCH  17  19
ATOM     19  C   UNL     1       1.318   0.199  -1.405  1.00  0.00     0.050 A 
ATOM     20  C   UNL     1       0.904  -0.180  -2.676  1.00  0.00     0.097 A 
ATOM     21  C   UNL     1       2.707  -0.149  -1.312  1.00  0.00     0.030 A 
ATOM     22  N   UNL     1       1.975  -0.733  -3.333  1.00  0.00    -0.345 N 
ATOM     23  C   UNL     1       3.711  -0.043  -0.330  1.00  0.00     0.023 A 
ATOM     24  C   UNL     1       3.072  -0.724  -2.522  1.00  0.00     0.138 A 
ATOM     25  C   UNL     1       5.001  -0.517  -0.618  1.00  0.00     0.001 A 
ATOM     26  N   UNL     1       4.277  -1.200  -2.877  1.00  0.00    -0.238 NA
ATOM     27  C   UNL     1       5.199  -1.074  -1.887  1.00  0.00     0.122 A 
ATOM     28  H   UNL     1       1.983  -1.101  -4.273  1.00  0.00     0.167 HD
BRANCH  25  29
ATOM     29  C   UNL     1       6.088  -0.436   0.370  1.00  0.00    -0.017 A 
ATOM     30  C   UNL     1       7.343   0.099   0.028  1.00  0.00     0.010 A 
ATOM     31  C   UNL     1       5.904  -0.892   1.688  1.00  0.00     0.010 A 
ATOM     32  C   UNL     1       8.377   0.173   0.968  1.00  0.00     0.021 A 
ATOM     33  C   UNL     1       6.936  -0.819   2.630  1.00  0.00     0.021 A 
ATOM     34  C   UNL     1       8.168  -0.288   2.265  1.00  0.00     0.041 A 
ATOM     35  Cl  UNL     1       9.439  -0.199   3.420  1.00  0.00    -0.084 Cl
ENDBRANCH  25  29
ENDBRANCH  17  19
ENDBRANCH   6  17
TORSDOF 7
